LAMMPS Description

     48  atoms
     2  atom types

  0.0 25.26 xlo xhi
  0.0 25.26 ylo yhi
  0.0 25.26 zlo zhi

Masses

1 6.941  # Li
2 35.453  # Cl

Atoms  # full

1 1 1.0 1.0 1.0 1.0
2 1 1.0 9.42 1.04 1.02
3 1 1.0 17.84 1.08 1.04
4 1 1.0 1.03 9.42 1.01
5 1 1.0 9.45 9.459999999999999 1.03
6 1 1.0 17.869999999999997 9.499999999999998 1.05
7 1 1.0 1.06 17.84 1.02
8 1 1.0 9.48 17.88 1.04
9 1 1.0 17.9 17.919999999999998 1.06
10 1 1.0 1.02 1.01 9.42
11 1 1.0 9.44 1.05 9.44
12 1 1.0 17.86 1.09 9.459999999999999
13 1 1.0 1.05 9.43 9.43
14 1 1.0 9.47 9.469999999999999 9.45
15 1 1.0 17.89 9.509999999999998 9.469999999999999
16 1 1.0 1.08 17.85 9.44
17 1 1.0 9.5 17.89 9.459999999999999
18 1 1.0 17.92 17.93 9.479999999999999
19 1 1.0 1.04 1.02 17.84
20 1 1.0 9.459999999999999 1.06 17.86
21 1 1.0 17.88 1.1 17.88
22 1 1.0 1.07 9.44 17.85
23 1 1.0 9.49 9.479999999999999 17.87
24 1 1.0 17.91 9.519999999999998 17.89
25 2 -1.0 2.0 2.0 2.0
26 2 -1.0 10.42 2.01 2.03
27 2 -1.0 18.84 2.02 2.06
28 2 -1.0 2.01 10.42 2.02
29 2 -1.0 10.43 10.43 2.05
30 2 -1.0 18.85 10.44 2.08
31 2 -1.0 2.02 18.84 2.04
32 2 -1.0 10.44 18.85 2.07
33 2 -1.0 18.86 18.860000000000003 2.1
34 2 -1.0 2.01 2.01 10.42
35 2 -1.0 10.43 2.02 10.45
36 2 -1.0 18.85 2.03 10.479999999999999
37 2 -1.0 2.02 10.43 10.44
38 2 -1.0 10.44 10.44 10.469999999999999
39 2 -1.0 18.86 10.45 10.499999999999998
40 2 -1.0 2.03 18.85 10.459999999999999
41 2 -1.0 10.45 18.860000000000003 10.489999999999998
42 2 -1.0 18.869999999999997 18.870000000000005 10.519999999999998
43 2 -1.0 2.02 2.02 18.84
44 2 -1.0 10.44 2.03 18.87
45 2 -1.0 18.86 2.04 18.900000000000002
46 2 -1.0 2.03 10.44 18.86
47 2 -1.0 10.45 10.45 18.89
48 2 -1.0 18.869999999999997 10.459999999999999 18.92

